[
  {
    "name": "Ethanol",
    "formula": "C2H5OH",
    "molecular_weight": 46.07,
    "boiling_point_c": 78.37,
    "density_kg_m3": 789,
    "cas_number": "64-17-5",
    "date_added": "2026-01-13"
  },
  {
    "name": "Methanol",
    "formula": "CH3OH",
    "molecular_weight": 32.04,
    "boiling_point_c": 64.7,
    "density_kg_m3": 792,
    "cas_number": "67-56-1",
    "date_added": "2026-01-13"
  },
  {
    "name": "Acetone",
    "formula": "C3H6O",
    "molecular_weight": 58.08,
    "boiling_point_c": 56.05,
    "density_kg_m3": 784,
    "cas_number": "67-64-1",
    "date_added": "2026-01-13"
  },
  {
    "name": "Benzene",
    "formula": "C6H6",
    "molecular_weight": 78.11,
    "boiling_point_c": 80.1,
    "density_kg_m3": 876,
    "cas_number": "71-43-2",
    "date_added": "2026-01-14"
  },
  {
    "name": "Toluene",
    "formula": "C7H8",
    "molecular_weight": 92.14,
    "boiling_point_c": 110.6,
    "density_kg_m3": 867,
    "cas_number": "108-88-3",
    "date_added": "2026-01-14"
  },
  {
    "name": "Acetic Acid",
    "formula": "CH3COOH",
    "molecular_weight": 60.05,
    "boiling_point_c": 118.1,
    "density_kg_m3": 1049,
    "cas_number": "64-19-7",
    "date_added": "2026-01-14"
  },
  {
    "name": "Chloroform",
    "formula": "CHCl3",
    "molecular_weight": 119.38,
    "boiling_point_c": 61.2,
    "density_kg_m3": 1480,
    "cas_number": "67-66-3",
    "date_added": "2026-01-13"
  },
  {
    "name": "Ethylene Glycol",
    "formula": "C2H6O2",
    "molecular_weight": 62.07,
    "boiling_point_c": 197.3,
    "density_kg_m3": 1113,
    "cas_number": "107-21-1",
    "date_added": "2026-01-13"
  },
  {
    "name": "Propylene",
    "formula": "C3H6",
    "molecular_weight": 42.08,
    "boiling_point_c": -47.6,
    "density_kg_m3": 514,
    "cas_number": "115-07-1",
    "date_added": "2026-01-14"
  }
]